 VARIABLES="xp ","yp ","f ","surf " 
 ZONE F=POINT 
3.399997 2.001680 1.000000 0.003360 
3.399984 2.005040 1.000000 0.003360 
3.399959 2.008400 1.000000 0.003360 
3.399921 2.011760 1.000000 0.003360 
3.399870 2.015119 1.000000 0.003360 
3.399807 2.018479 1.000000 0.003360 
3.399731 2.021838 1.000000 0.003360 
3.399642 2.025196 1.000000 0.003360 
3.399541 2.028555 1.000000 0.003360 
3.399427 2.031912 1.000000 0.003360 
3.399300 2.035270 1.000000 0.003360 
3.399161 2.038627 1.000000 0.003360 
3.399009 2.041983 1.000000 0.003360 
3.398844 2.045338 1.000000 0.003360 
3.398667 2.048693 1.000000 0.003360 
3.398477 2.052047 1.000000 0.003359 
3.398274 2.055401 1.000000 0.003359 
3.398059 2.058753 1.000000 0.003359 
3.397831 2.062105 1.000000 0.003359 
3.397591 2.065455 1.000000 0.003359 
3.397338 2.068805 1.000000 0.003359 
3.397072 2.072153 1.000000 0.003359 
3.396794 2.075500 1.000000 0.003359 
3.396503 2.078846 1.000000 0.003359 
3.396200 2.082191 1.000000 0.003359 
3.395884 2.085535 1.000000 0.003358 
3.395555 2.088877 1.000000 0.003358 
3.395214 2.092218 1.000000 0.003358 
3.394861 2.095558 1.000000 0.003358 
3.394494 2.098896 1.000000 0.003358 
3.394116 2.102232 1.000000 0.003358 
3.393724 2.105567 1.000000 0.003358 
3.393320 2.108900 1.000000 0.003357 
3.392904 2.112231 1.000000 0.003357 
3.392475 2.115561 1.000000 0.003357 
3.392034 2.118889 1.000000 0.003357 
3.391580 2.122215 1.000000 0.003357 
3.391114 2.125539 1.000000 0.003357 
3.390635 2.128862 1.000000 0.003356 
3.390144 2.132182 1.000000 0.003356 
3.389641 2.135500 1.000000 0.003356 
3.389125 2.138816 1.000000 0.003356 
3.388596 2.142130 1.000000 0.003356 
3.388056 2.145442 1.000000 0.003355 
3.387502 2.148751 1.000000 0.003355 
3.386937 2.152058 1.000000 0.003355 
3.386359 2.155363 1.000000 0.003355 
3.385769 2.158666 1.000000 0.003355 
3.385166 2.161966 1.000000 0.003354 
3.384551 2.165263 1.000000 0.003354 
3.383924 2.168558 1.000000 0.003354 
3.383285 2.171850 1.000000 0.003354 
3.382633 2.175140 1.000000 0.003353 
3.381969 2.178426 1.000000 0.003353 
3.381293 2.181711 1.000000 0.003353 
3.380605 2.184992 1.000000 0.003353 
3.379904 2.188270 1.000000 0.003352 
3.379191 2.191546 1.000000 0.003352 
3.378466 2.194819 1.000000 0.003352 
3.377729 2.198088 1.000000 0.003351 
3.376980 2.201355 1.000000 0.003351 
3.376219 2.204618 1.000000 0.003351 
3.375446 2.207878 1.000000 0.003351 
3.374660 2.211135 1.000000 0.003350 
3.373863 2.214389 1.000000 0.003350 
3.373053 2.217640 1.000000 0.003350 
3.372232 2.220887 1.000000 0.003349 
3.371398 2.224131 1.000000 0.003349 
3.370552 2.227371 1.000000 0.003349 
3.369695 2.230608 1.000000 0.003348 
3.368826 2.233841 1.000000 0.003348 
3.367944 2.237071 1.000000 0.003348 
3.367051 2.240297 1.000000 0.003347 
3.366146 2.243519 1.000000 0.003347 
3.365229 2.246738 1.000000 0.003347 
3.364300 2.249953 1.000000 0.003346 
3.363360 2.253164 1.000000 0.003346 
3.362407 2.256371 1.000000 0.003345 
3.361443 2.259574 1.000000 0.003345 
3.360467 2.262774 1.000000 0.003345 
3.359480 2.265969 1.000000 0.003344 
3.358481 2.269160 1.000000 0.003344 
3.357470 2.272347 1.000000 0.003343 
3.356447 2.275530 1.000000 0.003343 
3.355413 2.278709 1.000000 0.003343 
3.354368 2.281884 1.000000 0.003342 
3.353310 2.285054 1.000000 0.003342 
3.352241 2.288220 1.000000 0.003341 
3.351161 2.291382 1.000000 0.003341 
3.350069 2.294539 1.000000 0.003340 
3.348966 2.297692 1.000000 0.003340 
3.347851 2.300840 1.000000 0.003339 
3.346725 2.303983 1.000000 0.003339 
3.345588 2.307122 1.000000 0.003339 
3.344439 2.310257 1.000000 0.003338 
3.343279 2.313387 1.000000 0.003338 
3.342107 2.316511 1.000000 0.003337 
3.340924 2.319632 1.000000 0.003337 
3.339730 2.322747 1.000000 0.003336 
3.338525 2.325858 1.000000 0.003336 
3.337309 2.328963 1.000000 0.003335 
3.336081 2.332064 1.000000 0.003335 
3.334843 2.335160 1.000000 0.003334 
3.333593 2.338250 1.000000 0.003334 
3.332332 2.341336 1.000000 0.003333 
3.331060 2.344416 1.000000 0.003332 
3.329777 2.347492 1.000000 0.003332 
3.328483 2.350562 1.000000 0.003331 
3.327179 2.353627 1.000000 0.003331 
3.325863 2.356686 1.000000 0.003330 
3.324536 2.359741 1.000000 0.003330 
3.323199 2.362789 1.000000 0.003329 
3.321851 2.365833 1.000000 0.003328 
3.320491 2.368871 1.000000 0.003328 
3.319122 2.371904 1.000000 0.003327 
3.317741 2.374931 1.000000 0.003327 
3.316350 2.377952 1.000000 0.003326 
3.314948 2.380968 1.000000 0.003325 
3.313535 2.383978 1.000000 0.003325 
3.312112 2.386983 1.000000 0.003324 
3.310678 2.389982 1.000000 0.003324 
3.309234 2.392975 1.000000 0.003323 
3.307779 2.395962 1.000000 0.003322 
3.306314 2.398943 1.000000 0.003322 
3.304839 2.401919 1.000000 0.003321 
3.303353 2.404889 1.000000 0.003320 
3.301856 2.407852 1.000000 0.003320 
3.300350 2.410810 1.000000 0.003319 
3.298833 2.413762 1.000000 0.003318 
3.297305 2.416707 1.000000 0.003318 
3.295768 2.419647 1.000000 0.003317 
3.294220 2.422580 1.000000 0.003316 
3.292662 2.425507 1.000000 0.003316 
3.291095 2.428428 1.000000 0.003315 
3.289517 2.431343 1.000000 0.003314 
3.287929 2.434252 1.000000 0.003313 
3.286331 2.437154 1.000000 0.003313 
3.284723 2.440050 1.000000 0.003312 
3.283105 2.442939 1.000000 0.003311 
3.281477 2.445822 1.000000 0.003310 
3.279839 2.448698 1.000000 0.003310 
3.278192 2.451568 1.000000 0.003309 
3.276534 2.454432 1.000000 0.003308 
3.274868 2.457289 1.000000 0.003307 
3.273191 2.460139 1.000000 0.003307 
3.271504 2.462983 1.000000 0.003306 
3.269808 2.465820 1.000000 0.003305 
3.268103 2.468651 1.000000 0.003304 
3.266388 2.471474 1.000000 0.003303 
3.264663 2.474291 1.000000 0.003303 
3.262929 2.477101 1.000000 0.003302 
3.261186 2.479905 1.000000 0.003301 
3.259433 2.482701 1.000000 0.003300 
3.257670 2.485491 1.000000 0.003299 
3.255899 2.488273 1.000000 0.003298 
3.254118 2.491049 1.000000 0.003297 
3.252328 2.493818 1.000000 0.003297 
3.250528 2.496579 1.000000 0.003296 
3.248720 2.499334 1.000000 0.003295 
3.246902 2.502082 1.000000 0.003294 
3.245076 2.504822 1.000000 0.003293 
3.243240 2.507556 1.000000 0.003292 
3.241396 2.510282 1.000000 0.003291 
3.239542 2.513001 1.000000 0.003290 
3.237679 2.515713 1.000000 0.003289 
3.235808 2.518417 1.000000 0.003288 
3.233928 2.521115 1.000000 0.003288 
3.232039 2.523805 1.000000 0.003287 
3.230141 2.526488 1.000000 0.003286 
3.228235 2.529163 1.000000 0.003285 
3.226320 2.531831 1.000000 0.003284 
3.224396 2.534492 1.000000 0.003283 
3.222464 2.537145 1.000000 0.003282 
3.220523 2.539790 1.000000 0.003281 
3.218574 2.542429 1.000000 0.003280 
3.216616 2.545059 1.000000 0.003279 
3.214650 2.547683 1.000000 0.003278 
3.212675 2.550298 1.000000 0.003277 
3.210693 2.552906 1.000000 0.003276 
3.208702 2.555507 1.000000 0.003275 
3.206702 2.558100 1.000000 0.003274 
3.204695 2.560685 1.000000 0.003273 
3.202679 2.563262 1.000000 0.003272 
3.200655 2.565832 1.000000 0.003270 
3.198624 2.568394 1.000000 0.003269 
3.196584 2.570949 1.000000 0.003268 
3.194536 2.573495 1.000000 0.003267 
3.192481 2.576034 1.000000 0.003266 
3.190417 2.578565 1.000000 0.003265 
3.188346 2.581088 1.000000 0.003264 
3.186266 2.583603 1.000000 0.003263 
3.184180 2.586111 1.000000 0.003262 
3.182085 2.588610 1.000000 0.003261 
3.179983 2.591102 1.000000 0.003259 
3.177873 2.593585 1.000000 0.003258 
3.175755 2.596061 1.000000 0.003257 
3.173630 2.598529 1.000000 0.003256 
3.171498 2.600988 1.000000 0.003255 
3.169358 2.603440 1.000000 0.003254 
3.167211 2.605884 1.000000 0.003252 
3.165056 2.608319 1.000000 0.003251 
3.162894 2.610747 1.000000 0.003250 
3.160725 2.613166 1.000000 0.003249 
3.158549 2.615577 1.000000 0.003248 
3.156365 2.617981 1.000000 0.003246 
3.154175 2.620376 1.000000 0.003245 
3.151977 2.622762 1.000000 0.003244 
3.149772 2.625141 1.000000 0.003243 
3.147561 2.627512 1.000000 0.003241 
3.145342 2.629874 1.000000 0.003240 
3.143117 2.632228 1.000000 0.003239 
3.140884 2.634574 1.000000 0.003238 
3.138645 2.636911 1.000000 0.003236 
3.136399 2.639240 1.000000 0.003235 
3.134147 2.641561 1.000000 0.003234 
3.131887 2.643874 1.000000 0.003232 
3.129622 2.646179 1.000000 0.003231 
3.127349 2.648475 1.000000 0.003230 
3.125070 2.650762 1.000000 0.003228 
3.122785 2.653042 1.000000 0.003227 
3.120493 2.655313 1.000000 0.003226 
3.118195 2.657575 1.000000 0.003224 
3.115890 2.659829 1.000000 0.003223 
3.113580 2.662075 1.000000 0.003222 
3.111262 2.664312 1.000000 0.003220 
3.108939 2.666541 1.000000 0.003219 
3.106610 2.668762 1.000000 0.003217 
3.104274 2.670974 1.000000 0.003216 
3.101933 2.673178 1.000000 0.003215 
3.099585 2.675373 1.000000 0.003213 
3.097232 2.677559 1.000000 0.003212 
3.094872 2.679737 1.000000 0.003210 
3.092507 2.681907 1.000000 0.003209 
3.090136 2.684068 1.000000 0.003207 
3.087759 2.686221 1.000000 0.003206 
3.085377 2.688365 1.000000 0.003205 
3.082988 2.690500 1.000000 0.003203 
3.080595 2.692627 1.000000 0.003202 
3.078195 2.694746 1.000000 0.003200 
3.075790 2.696856 1.000000 0.003199 
3.073380 2.698957 1.000000 0.003197 
3.070964 2.701050 1.000000 0.003196 
3.068542 2.703134 1.000000 0.003194 
3.066116 2.705209 1.000000 0.003192 
3.063684 2.707276 1.000000 0.003191 
3.061246 2.709335 1.000000 0.003189 
3.058804 2.711385 1.000000 0.003188 
3.056356 2.713426 1.000000 0.003186 
3.053903 2.715458 1.000000 0.003185 
3.051446 2.717482 1.000000 0.003183 
3.048983 2.719497 1.000000 0.003182 
3.046515 2.721504 1.000000 0.003180 
3.044042 2.723502 1.000000 0.003178 
3.041565 2.725492 1.000000 0.003177 
3.039082 2.727472 1.000000 0.003175 
3.036595 2.729444 1.000000 0.003173 
3.034103 2.731408 1.000000 0.003172 
3.031606 2.733363 1.000000 0.003170 
3.029105 2.735309 1.000000 0.003168 
3.026599 2.737247 1.000000 0.003167 
3.024088 2.739175 1.000000 0.003165 
3.021573 2.741096 1.000000 0.003163 
3.019054 2.743007 1.000000 0.003162 
3.016530 2.744910 1.000000 0.003160 
3.014001 2.746804 1.000000 0.003158 
3.011469 2.748690 1.000000 0.003157 
3.008932 2.750567 1.000000 0.003155 
3.006390 2.752435 1.000000 0.003153 
3.003845 2.754295 1.000000 0.003151 
3.001295 2.756146 1.000000 0.003150 
2.998742 2.757988 1.000000 0.003148 
2.996184 2.759822 1.000000 0.003146 
2.993622 2.761647 1.000000 0.003144 
2.991057 2.763463 1.000000 0.003143 
2.988487 2.765271 1.000000 0.003141 
2.985914 2.767070 1.000000 0.003139 
2.983336 2.768861 1.000000 0.003137 
2.980755 2.770642 1.000000 0.003135 
2.978170 2.772416 1.000000 0.003134 
2.975582 2.774180 1.000000 0.003132 
2.972990 2.775936 1.000000 0.003130 
2.970394 2.777684 1.000000 0.003128 
2.967795 2.779422 1.000000 0.003126 
2.965192 2.781152 1.000000 0.003124 
2.962585 2.782874 1.000000 0.003123 
2.959976 2.784587 1.000000 0.003121 
2.957363 2.786291 1.000000 0.003119 
2.954746 2.787987 1.000000 0.003117 
2.952126 2.789674 1.000000 0.003115 
2.949503 2.791352 1.000000 0.003113 
2.946877 2.793022 1.000000 0.003111 
2.944248 2.794684 1.000000 0.003109 
2.941615 2.796337 1.000000 0.003107 
2.938980 2.797981 1.000000 0.003105 
2.936341 2.799617 1.000000 0.003104 
2.933699 2.801244 1.000000 0.003102 
2.931055 2.802863 1.000000 0.003100 
2.928407 2.804473 1.000000 0.003098 
2.925757 2.806074 1.000000 0.003096 
2.923104 2.807667 1.000000 0.003094 
2.920448 2.809252 1.000000 0.003092 
2.917790 2.810828 1.000000 0.003090 
2.915128 2.812396 1.000000 0.003088 
2.912464 2.813955 1.000000 0.003086 
2.909798 2.815506 1.000000 0.003084 
2.907129 2.817048 1.000000 0.003082 
2.904457 2.818582 1.000000 0.003080 
2.901783 2.820108 1.000000 0.003078 
2.899107 2.821625 1.000000 0.003076 
2.896428 2.823134 1.000000 0.003073 
2.893746 2.824634 1.000000 0.003071 
2.891063 2.826126 1.000000 0.003069 
2.888377 2.827609 1.000000 0.003067 
2.885689 2.829085 1.000000 0.003065 
2.882999 2.830551 1.000000 0.003063 
2.880306 2.832010 1.000000 0.003061 
2.877612 2.833460 1.000000 0.003059 
2.874916 2.834902 1.000000 0.003057 
2.872217 2.836336 1.000000 0.003055 
2.869517 2.837761 1.000000 0.003053 
2.866814 2.839178 1.000000 0.003050 
2.864110 2.840587 1.000000 0.003048 
2.861404 2.841988 1.000000 0.003046 
2.858696 2.843380 1.000000 0.003044 
2.855986 2.844764 1.000000 0.003042 
2.853274 2.846140 1.000000 0.003040 
2.850561 2.847508 1.000000 0.003037 
2.847846 2.848868 1.000000 0.003035 
2.845130 2.850219 1.000000 0.003033 
2.842412 2.851563 1.000000 0.003031 
2.839692 2.852898 1.000000 0.003029 
2.836971 2.854225 1.000000 0.003026 
2.834248 2.855544 1.000000 0.003024 
2.831524 2.856855 1.000000 0.003022 
2.828799 2.858158 1.000000 0.003020 
2.826072 2.859453 1.000000 0.003018 
2.823344 2.860740 1.000000 0.003015 
2.820615 2.862019 1.000000 0.003013 
2.817884 2.863290 1.000000 0.003011 
2.815152 2.864553 1.000000 0.003009 
2.812419 2.865809 1.000000 0.003006 
2.809685 2.867056 1.000000 0.003004 
2.806950 2.868295 1.000000 0.003002 
2.804214 2.869527 1.000000 0.002999 
2.801477 2.870750 1.000000 0.002997 
2.798739 2.871966 1.000000 0.002995 
2.795999 2.873174 1.000000 0.002992 
2.793259 2.874374 1.000000 0.002990 
2.790518 2.875566 1.000000 0.002988 
2.787777 2.876751 1.000000 0.002986 
2.785034 2.877927 1.000000 0.002983 
2.782291 2.879096 1.000000 0.002981 
2.779547 2.880258 1.000000 0.002979 
2.776802 2.881411 1.000000 0.002976 
2.774057 2.882557 1.000000 0.002974 
2.771310 2.883696 1.000000 0.002971 
2.768564 2.884826 1.000000 0.002969 
2.765817 2.885950 1.000000 0.002967 
2.763069 2.887065 1.000000 0.002964 
2.760321 2.888173 1.000000 0.002962 
2.757572 2.889274 1.000000 0.002960 
2.754823 2.890367 1.000000 0.002957 
2.752073 2.891452 1.000000 0.002955 
2.749324 2.892530 1.000000 0.002952 
2.746573 2.893600 1.000000 0.002950 
2.743823 2.894664 1.000000 0.002948 
2.741072 2.895719 1.000000 0.002945 
2.738321 2.896768 1.000000 0.002943 
2.735570 2.897809 1.000000 0.002940 
2.732819 2.898842 1.000000 0.002938 
2.730067 2.899868 1.000000 0.002935 
2.727316 2.900887 1.000000 0.002933 
2.724564 2.901899 1.000000 0.002931 
2.721812 2.902904 1.000000 0.002928 
2.719061 2.903901 1.000000 0.002926 
2.716309 2.904891 1.000000 0.002923 
2.713557 2.905874 1.000000 0.002921 
2.710806 2.906850 1.000000 0.002918 
2.708054 2.907819 1.000000 0.002916 
2.705303 2.908780 1.000000 0.002913 
2.702552 2.909735 1.000000 0.002911 
2.699801 2.910682 1.000000 0.002908 
2.697050 2.911623 1.000000 0.002906 
2.694300 2.912556 1.000000 0.002903 
2.691549 2.913483 1.000000 0.002901 
2.688799 2.914402 1.000000 0.002898 
2.686050 2.915315 1.000000 0.002896 
2.683301 2.916221 1.000000 0.002893 
2.680552 2.917120 1.000000 0.002891 
2.677803 2.918012 1.000000 0.002888 
2.675055 2.918897 1.000000 0.002886 
2.672308 2.919775 1.000000 0.002883 
2.669561 2.920647 1.000000 0.002881 
2.666815 2.921512 1.000000 0.002878 
2.664069 2.922370 1.000000 0.002876 
2.661323 2.923222 1.000000 0.002873 
2.658579 2.924067 1.000000 0.002871 
2.655834 2.924905 1.000000 0.002868 
2.653091 2.925737 1.000000 0.002865 
2.650348 2.926562 1.000000 0.002863 
2.647606 2.927381 1.000000 0.002860 
2.644865 2.928193 1.000000 0.002858 
2.642124 2.928998 1.000000 0.002855 
2.639384 2.929797 1.000000 0.002853 
2.636645 2.930590 1.000000 0.002850 
2.633907 2.931376 1.000000 0.002848 
2.631170 2.932156 1.000000 0.002845 
2.628433 2.932930 1.000000 0.002842 
2.625698 2.933697 1.000000 0.002840 
2.622963 2.934458 1.000000 0.002837 
2.620229 2.935213 1.000000 0.002835 
2.617496 2.935961 1.000000 0.002832 
2.614764 2.936703 1.000000 0.002830 
2.612034 2.937439 1.000000 0.002827 
2.609304 2.938169 1.000000 0.002824 
2.606575 2.938893 1.000000 0.002822 
2.603847 2.939611 1.000000 0.002819 
2.601121 2.940322 1.000000 0.002817 
2.598395 2.941028 1.000000 0.002814 
2.595671 2.941727 1.000000 0.002811 
2.592947 2.942421 1.000000 0.002809 
2.590225 2.943108 1.000000 0.002806 
2.587504 2.943790 1.000000 0.002804 
2.584785 2.944466 1.000000 0.002801 
2.582066 2.945136 1.000000 0.002799 
2.579349 2.945800 1.000000 0.002796 
2.576633 2.946458 1.000000 0.002793 
2.573918 2.947111 1.000000 0.002791 
2.571205 2.947757 1.000000 0.002788 
2.568493 2.948398 1.000000 0.002786 
2.565782 2.949034 1.000000 0.002783 
2.563072 2.949663 1.000000 0.002780 
2.560364 2.950288 1.000000 0.002778 
2.557658 2.950906 1.000000 0.002775 
2.554952 2.951519 1.000000 0.002773 
2.552248 2.952126 1.000000 0.002770 
2.549546 2.952728 1.000000 0.002767 
2.546845 2.953324 1.000000 0.002765 
2.544145 2.953915 1.000000 0.002762 
2.541447 2.954501 1.000000 0.002760 
2.538751 2.955081 1.000000 0.002757 
2.536056 2.955656 1.000000 0.002754 
2.533362 2.956225 1.000000 0.002752 
2.530670 2.956789 1.000000 0.002749 
2.527979 2.957348 1.000000 0.002747 
2.525290 2.957901 1.000000 0.002744 
2.522603 2.958450 1.000000 0.002741 
2.519917 2.958993 1.000000 0.002739 
2.517233 2.959531 1.000000 0.002736 
2.514550 2.960064 1.000000 0.002734 
2.511869 2.960592 1.000000 0.002731 
2.509190 2.961114 1.000000 0.002729 
2.506512 2.961632 1.000000 0.002726 
2.503836 2.962145 1.000000 0.002723 
2.501162 2.962652 1.000000 0.002721 
2.498489 2.963155 1.000000 0.002718 
2.495818 2.963653 1.000000 0.002716 
2.493149 2.964146 1.000000 0.002713 
2.490482 2.964634 1.000000 0.002711 
2.487816 2.965117 1.000000 0.002708 
2.485152 2.965596 1.000000 0.002705 
2.482489 2.966070 1.000000 0.002703 
2.479829 2.966539 1.000000 0.002700 
2.477170 2.967003 1.000000 0.002698 
2.474513 2.967463 1.000000 0.002695 
2.471857 2.967918 1.000000 0.002693 
2.469204 2.968368 1.000000 0.002690 
2.466552 2.968814 1.000000 0.002688 
2.463902 2.969255 1.000000 0.002685 
2.461254 2.969692 1.000000 0.002683 
2.458608 2.970124 1.000000 0.002680 
2.455964 2.970552 1.000000 0.002678 
2.453321 2.970975 1.000000 0.002675 
2.450680 2.971394 1.000000 0.002673 
2.448041 2.971808 1.000000 0.002670 
2.445404 2.972219 1.000000 0.002668 
2.442769 2.972624 1.000000 0.002665 
2.440136 2.973026 1.000000 0.002663 
2.437504 2.973423 1.000000 0.002660 
2.434875 2.973816 1.000000 0.002658 
2.432247 2.974205 1.000000 0.002655 
2.429621 2.974590 1.000000 0.002653 
2.426997 2.974971 1.000000 0.002650 
2.424375 2.975347 1.000000 0.002648 
2.421755 2.975719 1.000000 0.002645 
2.419137 2.976088 1.000000 0.002643 
2.416520 2.976452 1.000000 0.002640 
2.413906 2.976812 1.000000 0.002638 
2.411294 2.977169 1.000000 0.002635 
2.408683 2.977521 1.000000 0.002633 
2.406074 2.977870 1.000000 0.002631 
2.403468 2.978214 1.000000 0.002628 
2.400863 2.978555 1.000000 0.002626 
2.398260 2.978892 1.000000 0.002623 
2.395659 2.979225 1.000000 0.002621 
2.393060 2.979554 1.000000 0.002619 
2.390463 2.979880 1.000000 0.002616 
2.387868 2.980202 1.000000 0.002614 
2.385274 2.980520 1.000000 0.002611 
2.382683 2.980835 1.000000 0.002609 
2.380094 2.981146 1.000000 0.002607 
2.377506 2.981453 1.000000 0.002604 
2.374921 2.981757 1.000000 0.002602 
2.372337 2.982057 1.000000 0.002600 
2.369756 2.982354 1.000000 0.002597 
2.367176 2.982647 1.000000 0.002595 
2.364598 2.982937 1.000000 0.002593 
2.362023 2.983223 1.000000 0.002591 
2.359449 2.983506 1.000000 0.002588 
2.356877 2.983786 1.000000 0.002586 
2.354307 2.984062 1.000000 0.002584 
2.351739 2.984335 1.000000 0.002581 
2.349172 2.984605 1.000000 0.002579 
2.346608 2.984871 1.000000 0.002577 
2.344046 2.985134 1.000000 0.002575 
2.341485 2.985394 1.000000 0.002572 
2.338927 2.985651 1.000000 0.002570 
2.336370 2.985904 1.000000 0.002568 
2.333816 2.986154 1.000000 0.002566 
2.331263 2.986402 1.000000 0.002564 
2.328712 2.986646 1.000000 0.002561 
2.326163 2.986887 1.000000 0.002559 
2.323616 2.987125 1.000000 0.002557 
2.321071 2.987360 1.000000 0.002555 
2.318527 2.987592 1.000000 0.002553 
2.315986 2.987822 1.000000 0.002551 
2.313446 2.988048 1.000000 0.002549 
2.310909 2.988271 1.000000 0.002546 
2.308373 2.988492 1.000000 0.002544 
2.305839 2.988709 1.000000 0.002542 
2.303306 2.988924 1.000000 0.002540 
2.300776 2.989136 1.000000 0.002538 
2.298248 2.989345 1.000000 0.002536 
2.295721 2.989552 1.000000 0.002534 
2.293196 2.989755 1.000000 0.002532 
2.290673 2.989956 1.000000 0.002530 
2.288152 2.990155 1.000000 0.002528 
2.285633 2.990350 1.000000 0.002526 
2.283115 2.990543 1.000000 0.002524 
2.280599 2.990734 1.000000 0.002522 
2.278085 2.990921 1.000000 0.002520 
2.275573 2.991107 1.000000 0.002518 
2.273062 2.991289 1.000000 0.002516 
2.270553 2.991469 1.000000 0.002514 
2.268046 2.991647 1.000000 0.002512 
2.265541 2.991822 1.000000 0.002510 
2.263038 2.991995 1.000000 0.002509 
2.260536 2.992165 1.000000 0.002507 
2.258036 2.992333 1.000000 0.002505 
2.255537 2.992499 1.000000 0.002503 
2.253040 2.992662 1.000000 0.002501 
2.250545 2.992823 1.000000 0.002499 
2.248052 2.992981 1.000000 0.002498 
2.245560 2.993137 1.000000 0.002496 
2.243070 2.993291 1.000000 0.002494 
2.240582 2.993443 1.000000 0.002492 
2.238095 2.993592 1.000000 0.002490 
2.235610 2.993739 1.000000 0.002489 
2.233126 2.993885 1.000000 0.002487 
2.230644 2.994027 1.000000 0.002485 
2.228163 2.994168 1.000000 0.002484 
2.225685 2.994307 1.000000 0.002482 
2.223207 2.994443 1.000000 0.002480 
2.220732 2.994577 1.000000 0.002479 
2.218257 2.994710 1.000000 0.002477 
2.215785 2.994840 1.000000 0.002475 
2.213313 2.994968 1.000000 0.002474 
2.210844 2.995094 1.000000 0.002472 
2.208376 2.995218 1.000000 0.002471 
2.205909 2.995340 1.000000 0.002469 
2.203444 2.995461 1.000000 0.002467 
2.200980 2.995579 1.000000 0.002466 
2.198517 2.995695 1.000000 0.002464 
2.196057 2.995810 1.000000 0.002463 
2.193597 2.995922 1.000000 0.002461 
2.191139 2.996033 1.000000 0.002460 
2.188682 2.996142 1.000000 0.002458 
2.186227 2.996249 1.000000 0.002457 
2.183773 2.996354 1.000000 0.002456 
2.181320 2.996457 1.000000 0.002454 
2.178869 2.996559 1.000000 0.002453 
2.176418 2.996659 1.000000 0.002451 
2.173970 2.996757 1.000000 0.002450 
2.171522 2.996853 1.000000 0.002449 
2.169076 2.996947 1.000000 0.002447 
2.166631 2.997040 1.000000 0.002446 
2.164187 2.997132 1.000000 0.002445 
2.161745 2.997221 1.000000 0.002444 
2.159303 2.997309 1.000000 0.002442 
2.156863 2.997395 1.000000 0.002441 
2.154424 2.997480 1.000000 0.002440 
2.151987 2.997563 1.000000 0.002439 
2.149550 2.997644 1.000000 0.002437 
2.147114 2.997724 1.000000 0.002436 
2.144680 2.997802 1.000000 0.002435 
2.142247 2.997878 1.000000 0.002434 
2.139814 2.997954 1.000000 0.002433 
2.137383 2.998027 1.000000 0.002432 
2.134953 2.998099 1.000000 0.002431 
2.132524 2.998170 1.000000 0.002430 
2.130096 2.998239 1.000000 0.002429 
2.127669 2.998306 1.000000 0.002428 
2.125243 2.998372 1.000000 0.002426 
2.122818 2.998437 1.000000 0.002425 
2.120393 2.998500 1.000000 0.002425 
2.117970 2.998561 1.000000 0.002424 
2.115548 2.998622 1.000000 0.002423 
2.113126 2.998681 1.000000 0.002422 
2.110706 2.998738 1.000000 0.002421 
2.108286 2.998794 1.000000 0.002420 
2.105867 2.998849 1.000000 0.002419 
2.103449 2.998902 1.000000 0.002418 
2.101032 2.998954 1.000000 0.002417 
2.098616 2.999004 1.000000 0.002417 
2.096200 2.999054 1.000000 0.002416 
2.093785 2.999102 1.000000 0.002415 
2.091371 2.999148 1.000000 0.002414 
2.088957 2.999193 1.000000 0.002414 
2.086545 2.999237 1.000000 0.002413 
2.084132 2.999280 1.000000 0.002412 
2.081721 2.999321 1.000000 0.002411 
2.079310 2.999361 1.000000 0.002411 
2.076900 2.999400 1.000000 0.002410 
2.074491 2.999437 1.000000 0.002410 
2.072082 2.999474 1.000000 0.002409 
2.069673 2.999509 1.000000 0.002408 
2.067265 2.999542 1.000000 0.002408 
2.064858 2.999575 1.000000 0.002407 
2.062451 2.999606 1.000000 0.002407 
2.060045 2.999636 1.000000 0.002406 
2.057639 2.999665 1.000000 0.002406 
2.055234 2.999692 1.000000 0.002405 
2.052829 2.999719 1.000000 0.002405 
2.050425 2.999744 1.000000 0.002404 
2.048021 2.999768 1.000000 0.002404 
2.045617 2.999791 1.000000 0.002404 
2.043214 2.999812 1.000000 0.002403 
2.040811 2.999833 1.000000 0.002403 
2.038408 2.999852 1.000000 0.002403 
2.036006 2.999870 1.000000 0.002402 
2.033604 2.999887 1.000000 0.002402 
2.031202 2.999902 1.000000 0.002402 
2.028800 2.999917 1.000000 0.002401 
2.026399 2.999930 1.000000 0.002401 
2.023998 2.999942 1.000000 0.002401 
2.021597 2.999953 1.000000 0.002401 
2.019197 2.999963 1.000000 0.002401 
2.016796 2.999972 1.000000 0.002400 
2.014396 2.999979 1.000000 0.002400 
2.011995 2.999985 1.000000 0.002400 
2.009595 2.999991 1.000000 0.002400 
2.007195 2.999995 1.000000 0.002400 
2.004795 2.999998 1.000000 0.002400 
2.002395 2.999999 1.000000 0.002400 
1.999995 3.000000 1.000000 0.002400 
1.997595 2.999999 1.000000 0.002400 
1.995195 2.999998 1.000000 0.002400 
1.992795 2.999995 1.000000 0.002400 
1.990395 2.999991 1.000000 0.002400 
1.987994 2.999985 1.000000 0.002400 
1.985594 2.999979 1.000000 0.002400 
1.983194 2.999972 1.000000 0.002400 
1.980793 2.999963 1.000000 0.002401 
1.978392 2.999953 1.000000 0.002401 
1.975992 2.999942 1.000000 0.002401 
1.973590 2.999930 1.000000 0.002401 
1.971189 2.999917 1.000000 0.002401 
1.968788 2.999902 1.000000 0.002402 
1.966386 2.999887 1.000000 0.002402 
1.963984 2.999870 1.000000 0.002402 
1.961582 2.999852 1.000000 0.002403 
1.959179 2.999833 1.000000 0.002403 
1.956776 2.999812 1.000000 0.002403 
1.954373 2.999791 1.000000 0.002404 
1.951969 2.999768 1.000000 0.002404 
1.949565 2.999744 1.000000 0.002404 
1.947160 2.999719 1.000000 0.002405 
1.944756 2.999692 1.000000 0.002405 
1.942350 2.999665 1.000000 0.002406 
1.939944 2.999636 1.000000 0.002406 
1.937538 2.999606 1.000000 0.002407 
1.935131 2.999575 1.000000 0.002407 
1.932724 2.999542 1.000000 0.002408 
1.930316 2.999509 1.000000 0.002408 
1.927908 2.999474 1.000000 0.002409 
1.925499 2.999437 1.000000 0.002410 
1.923089 2.999400 1.000000 0.002410 
1.920679 2.999361 1.000000 0.002411 
1.918269 2.999321 1.000000 0.002411 
1.915857 2.999280 1.000000 0.002412 
1.913445 2.999237 1.000000 0.002413 
1.911032 2.999193 1.000000 0.002414 
1.908619 2.999148 1.000000 0.002414 
1.906205 2.999101 1.000000 0.002415 
1.903790 2.999053 1.000000 0.002416 
1.901374 2.999004 1.000000 0.002417 
1.898958 2.998954 1.000000 0.002417 
1.896540 2.998902 1.000000 0.002418 
1.894122 2.998848 1.000000 0.002419 
1.891703 2.998794 1.000000 0.002420 
1.889284 2.998738 1.000000 0.002421 
1.886863 2.998680 1.000000 0.002422 
1.884442 2.998621 1.000000 0.002423 
1.882019 2.998561 1.000000 0.002424 
1.879596 2.998499 1.000000 0.002425 
1.877172 2.998436 1.000000 0.002426 
1.874747 2.998372 1.000000 0.002426 
1.872321 2.998306 1.000000 0.002428 
1.869894 2.998238 1.000000 0.002429 
1.867465 2.998169 1.000000 0.002430 
1.865036 2.998099 1.000000 0.002431 
1.862606 2.998027 1.000000 0.002432 
1.860175 2.997953 1.000000 0.002433 
1.857743 2.997878 1.000000 0.002434 
1.855310 2.997802 1.000000 0.002435 
1.852875 2.997723 1.000000 0.002436 
1.850440 2.997644 1.000000 0.002437 
1.848003 2.997562 1.000000 0.002439 
1.845565 2.997479 1.000000 0.002440 
1.843126 2.997395 1.000000 0.002441 
1.840686 2.997308 1.000000 0.002442 
1.838245 2.997221 1.000000 0.002444 
1.835802 2.997131 1.000000 0.002445 
1.833358 2.997040 1.000000 0.002446 
1.830914 2.996947 1.000000 0.002447 
1.828467 2.996852 1.000000 0.002449 
1.826020 2.996756 1.000000 0.002450 
1.823571 2.996658 1.000000 0.002451 
1.821121 2.996558 1.000000 0.002453 
1.818670 2.996457 1.000000 0.002454 
1.816217 2.996353 1.000000 0.002456 
1.813763 2.996248 1.000000 0.002457 
1.811307 2.996141 1.000000 0.002458 
1.808851 2.996032 1.000000 0.002460 
1.806392 2.995922 1.000000 0.002461 
1.803933 2.995809 1.000000 0.002463 
1.801472 2.995695 1.000000 0.002464 
1.799010 2.995578 1.000000 0.002466 
1.796546 2.995460 1.000000 0.002467 
1.794080 2.995340 1.000000 0.002469 
1.791614 2.995218 1.000000 0.002471 
1.789146 2.995094 1.000000 0.002472 
1.786676 2.994967 1.000000 0.002474 
1.784205 2.994839 1.000000 0.002475 
1.781732 2.994709 1.000000 0.002477 
1.779258 2.994577 1.000000 0.002479 
1.776782 2.994442 1.000000 0.002480 
1.774305 2.994306 1.000000 0.002482 
1.771826 2.994167 1.000000 0.002484 
1.769345 2.994027 1.000000 0.002485 
1.766863 2.993884 1.000000 0.002487 
1.764380 2.993739 1.000000 0.002489 
1.761895 2.993592 1.000000 0.002490 
1.759408 2.993442 1.000000 0.002492 
1.756919 2.993291 1.000000 0.002494 
1.754429 2.993137 1.000000 0.002496 
1.751937 2.992980 1.000000 0.002498 
1.749444 2.992822 1.000000 0.002499 
1.746949 2.992661 1.000000 0.002501 
1.744452 2.992498 1.000000 0.002503 
1.741954 2.992332 1.000000 0.002505 
1.739454 2.992165 1.000000 0.002507 
1.736952 2.991994 1.000000 0.002509 
1.734448 2.991821 1.000000 0.002510 
1.731943 2.991646 1.000000 0.002512 
1.729436 2.991469 1.000000 0.002514 
1.726927 2.991288 1.000000 0.002516 
1.724416 2.991106 1.000000 0.002518 
1.721904 2.990921 1.000000 0.002520 
1.719390 2.990733 1.000000 0.002522 
1.716874 2.990542 1.000000 0.002524 
1.714357 2.990349 1.000000 0.002526 
1.711837 2.990154 1.000000 0.002528 
1.709316 2.989955 1.000000 0.002530 
1.706793 2.989754 1.000000 0.002532 
1.704268 2.989551 1.000000 0.002534 
1.701741 2.989344 1.000000 0.002536 
1.699213 2.989135 1.000000 0.002538 
1.696683 2.988923 1.000000 0.002540 
1.694150 2.988708 1.000000 0.002542 
1.691616 2.988491 1.000000 0.002544 
1.689081 2.988270 1.000000 0.002546 
1.686543 2.988047 1.000000 0.002549 
1.684003 2.987821 1.000000 0.002551 
1.681462 2.987591 1.000000 0.002553 
1.678918 2.987359 1.000000 0.002555 
1.676373 2.987124 1.000000 0.002557 
1.673826 2.986886 1.000000 0.002559 
1.671277 2.986645 1.000000 0.002561 
1.668726 2.986401 1.000000 0.002564 
1.666173 2.986153 1.000000 0.002566 
1.663619 2.985903 1.000000 0.002568 
1.661062 2.985649 1.000000 0.002570 
1.658504 2.985393 1.000000 0.002572 
1.655943 2.985133 1.000000 0.002575 
1.653381 2.984870 1.000000 0.002577 
1.650816 2.984603 1.000000 0.002579 
1.648250 2.984334 1.000000 0.002581 
1.645682 2.984061 1.000000 0.002584 
1.643112 2.983785 1.000000 0.002586 
1.640540 2.983505 1.000000 0.002588 
1.637966 2.983222 1.000000 0.002591 
1.635391 2.982936 1.000000 0.002593 
1.632813 2.982646 1.000000 0.002595 
1.630233 2.982353 1.000000 0.002597 
1.627651 2.982056 1.000000 0.002600 
1.625068 2.981756 1.000000 0.002602 
1.622482 2.981452 1.000000 0.002604 
1.619895 2.981144 1.000000 0.002607 